
                                 *****************
                                 * O   R   C   A *
                                 *****************

                                            #,                                       
                                            ###                                      
                                            ####                                     
                                            #####                                    
                                            ######                                   
                                           ########,                                 
                                     ,,################,,,,,                         
                               ,,#################################,,                 
                          ,,##########################################,,             
                       ,#########################################, ''#####,          
                    ,#############################################,,   '####,        
                  ,##################################################,,,,####,       
                ,###########''''           ''''###############################       
              ,#####''   ,,,,##########,,,,          '''####'''          '####       
            ,##' ,,,,###########################,,,                        '##       
           ' ,,###''''                  '''############,,,                           
         ,,##''                                '''############,,,,        ,,,,,,###''
      ,#''                                            '''#######################'''  
     '                                                          ''''####''''         
             ,#######,   #######,   ,#######,      ##                                
            ,#'     '#,  ##    ##  ,#'     '#,    #''#        ,####,   ,####,        
            ##       ##  ##   ,#'  ##            #'  '#       #'       #'  '#        
            ##       ##  #######   ##           ,######,      #####,   #    #        
            '#,     ,#'  ##    ##  '#,     ,#' ,#      #,     #,   #   #,  ,#        
             '#######'   ##     ##  '#######'  #'      '#     '####' # '####'        



                #########################################################
                #                        -***-                          #
                #          Department of theory and spectroscopy        #
                #                                                       #
                #                      Frank Neese                      #
                #                                                       #
                #     Directorship, Architecture, Infrastructure        #
                #                    SHARK, DRIVERS                     #
                #        Core code/Algorithms in most modules           #
                #                                                       #
                #        Max Planck Institute fuer Kohlenforschung      #
                #                Kaiser Wilhelm Platz 1                 #
                #                 D-45470 Muelheim/Ruhr                 #
                #                      Germany                          #
                #                                                       #
                #                  All rights reserved                  #
                #                        -***-                          #
                #########################################################


                         Program Version 6.0.1  -  RELEASE   -


 With contributions from (in alphabetic order):
[Max-Planck-Institut fuer Kohlenforschung]                               
  Daniel Aravena         : Magnetic Suceptibility                        
  Michael Atanasov       : Ab Initio Ligand Field Theory (pilot matlab implementation)
  Alexander A. Auer      : GIAO ZORA, VPT2 properties, NMR spectrum      
  Ute Becker             : All parallelization in ORCA, NUMFREQ, NUMCALC 
  Giovanni Bistoni       : ED, misc. LED, open-shell LED, HFLD           
  Martin Brehm           : Molecular dynamics                            
  Dmytro Bykov           : pre 5.0 version of the SCF Hessian            
  Marcos Casanova-Páez   : Triplet and SCS-CIS(D). UHF-(DLPNO)-IP/EA/STEOM-CCSD. UHF-CVS-IP/STEOM-CCSD   
  Vijay G. Chilkuri      : MRCI spin determinant printing, contributions to CSF-ICE 
  Pauline Colinet        : FMM embedding                                 
  Dipayan Datta          : RHF DLPNO-CCSD density                        
  Achintya Kumar Dutta   : EOM-CC, STEOM-CC                              
  Nicolas Foglia         : Exact transition moments, OPA infrastructure, MCD improvements    
  Dmitry Ganyushin       : Spin-Orbit,Spin-Spin,Magnetic field MRCI      
  Miquel Garcia-Rates    : C-PCM and meta-GGA Hessian, CCSD/C-PCM, Gaussian charge scheme 
  Tiago L. C. Gouveia    : GS-ROHF, GS-ROCIS                             
  Yang Guo               : DLPNO-NEVPT2, F12-NEVPT2, CIM, IAO-localization        
  Andreas Hansen         : Spin unrestricted coupled pair/coupled cluster methods 
  Ingolf Harden          : AUTO-CI MPn and infrastructure                
  Benjamin Helmich-Paris : MC-RPA, TRAH-(SCF,CASSCF), AVAS, COSX integrals, SCF dyn. polar. 
  Lee Huntington         : MR-EOM, pCC                                   
  Robert Izsak           : Overlap fitted RIJCOSX, COSX-SCS-MP3, EOM     
  Riya Kayal             : Wick's Theorem for AUTO-CI, AUTO-CI UHF-CCSDT 
  Emily Kempfer          : AUTO-CI, RHF CISDT and CCSDT                  
  Christian Kollmar      : KDIIS, OOCD, Brueckner-CCSD(T), CCSD density, CASPT2, CASPT2-K, improved NEVPT2 
  Axel Koslowski         : Symmetry handling                             
  Simone Kossmann        : meta-GGA functionals, TD-DFT gradient, OOMP2, (MP2 Hessian; deprecated post 5.0) 
  Lucas Lang             : DCDCAS                                        
  Marvin Lechner         : AUTO-CI (C++ implementation), FIC-MRCC        
  Spencer Leger          : CASSCF response                               
  Dagmar Lenk            : GEPOL surface, SMD, ORCA-2-JSON               
  Dimitrios Liakos       : Extrapolation schemes; Compound Job, initial MDCI parallelization 
  Dimitrios Manganas     : Further ROCIS development; embedding schemes. LFT, Crystal Embedding 
  Dimitrios Pantazis     : SARC Basis sets                               
  Anastasios Papadopoulos: AUTO-CI, single reference methods and gradients 
  Taras Petrenko         : pre 6.0 DFT Hessian and TD-DFT gradient, (ASA, deprecated), ECA, 1-Electron XAS/XES, NRVS 
  Peter Pinski           : DLPNO-MP2, DLPNO-MP2 Gradient                 
  Christoph Reimann      : Effective Core Potentials                     
  Marius Retegan         : Local ZFS, SOC                                
  Christoph Riplinger    : Optimizer, TS searches, QM/MM, DLPNO-CCSD(T), (RO)-DLPNO pert. Triples 
  Michael Roemelt        : Original ROCIS implementation                 
  Masaaki Saitow         : Open-shell DLPNO-CCSD energy and density      
  Barbara Sandhoefer     : DKH picture change effects                    
  Kantharuban Sivalingam : CASSCF convergence/infrastructure, NEVPT2 and variants, FIC-MRCI 
  Bernardo de Souza      : ESD, SOC TD-DFT                               
  Georgi L. Stoychev     : AutoAux, RI-MP2 NMR, DLPNO-MP2 response, X2C  
  Van Anh Tran           : RI-MP2 g-tensors                              
  Willem Van den Heuvel  : Paramagnetic NMR                              
  Zikuan Wang            : NOTCH, Electric field optimization            
  Frank Wennmohs         : Technical directorship and infrastructure     
  Hang Xu                : AUTO-CI-Response properties                   
                                                                         
[FACCTs GmbH]                                                            
  Markus Bursch, Miquel Garcia-Rates, Christoph Riplinger, Bernardo de Souza, Georgi L. Stoychev 
                                                                 
  APM, Basis sets (HGBS, AHGBS, def-TZVP (Ac-Lr), def2-XVPD (La-Lu)), CI-OPT, improved COSX, DLPNO-Multilevel,           
  DOCKER, DRACO, updates on ESD, GOAT, IRC, LR-CPCM, MBIS, meta-GGA TD-DFT gradient, ML-optimized integration grids, 
  MM, NACMEs, nearIR, NEB, NEB-TS, NL-DFT gradient (VV10), 2- and 3-layer-ONIOM, interface openCOSMO-RS, QMMM,   
  Crystal-QMMM, SF, symmetry and pop. for TD-DFT, r2SCAN hybrids, SOLVATOR                                   
                                                                         
[Other institutions]                                                     
  V. Asgeirsson          : NEB                                           
  Christoph Bannwarth    : sTDA-DFT, sTD-DFT, PBEh-3c, B97-3c, D3        
  Sebastian Ehlert       : rSCAN, r2SCAN, r2SCAN-3c, D4, dhf basis sets  
  Marvin Friede          : D4 for Fr, Ra, Ac-Lr                          
  Lars Goerigk           : TD-DFT with DH, B97 family of functionals     
  Stefan Grimme          : VdW corrections, initial TS optimization, DFT functionals, gCP, sTDA/sTD-DF 
  Waldemar Hujo          : DFT-NL                                        
  H. Jonsson             : NEB                                           
  Holger Kruse           : gCP                                           
  Marcel Mueller         : wB97X-3c, vDZP basis set                      
  Hagen Neugebauer       : wr2SCAN                                       
  Tobias Risthaus        : range-separated hybrid DFT                    
  Lukas Wittmann         : regularized MP2, r2SCAN double-hybrids, wr2SCAN        
                                                                         
We gratefully acknowledge several colleagues who have allowed us to      
interface, adapt or use parts of their codes:                            
  Ed Valeev, F. Pavosevic, A. Kumar             : LibInt (2-el integral package), F12 methods 
  Garnet Chan, S. Sharma, J. Yang, R. Olivares  : DMRG                   
  Ulf Ekstrom                                   : XCFun DFT Library      
  Mihaly Kallay                                 : mrcc  (arbitrary order and MRCC methods)
  Frank Weinhold                                : gennbo (NPA and NBO analysis)           
  Simon Mueller                                 : openCOSMO-RS                            
  Christopher J. Cramer and Donald G. Truhlar   : smd solvation model                     
  S Lehtola, MJT Oliveira, MAL Marques          : LibXC Library                           
  Liviu Ungur et al                             : ANISO software                          


 Your calculation uses the libint2 library for the computation of 2-el integrals
 For citations please refer to: http://libint.valeyev.net

 Your ORCA version has been built with support for libXC version: 6.2.2
 For citations please refer to: https://libxc.gitlab.io

 This ORCA versions uses:
   CBLAS   interface :  Fast vector & matrix operations
   LAPACKE interface :  Fast linear algebra routines
   SCALAPACK package :  Parallel linear algebra routines
   Shared memory     :  Shared parallel matrices
   BLAS/LAPACK       :  OpenBLAS 0.3.27  USE64BITINT DYNAMIC_ARCH NO_AFFINITY Zen SINGLE_THREADED
        Core in use  :  Zen
   Copyright (c) 2011-2014, The OpenBLAS Project


NOTE: MaxCore=3000 MB was set to SCF,MP2,MDCI,CIPSI,MRCI and CIS
      => If you want to overwrite this, your respective input block should be placed after the MaxCore statement


***************************************
The coordinates will be read from file: qm_complex.pdb
***************************************


Your calculation utilizes the geometrical counterpoise correction gCP
Please cite in your paper:
H.Kruse, S. Grimme J.Chem.Phys., 136, (2012), 154101 
   

Your calculation utilizes the atom-pairwise dispersion correction
with the Becke-Johnson damping scheme (D3BJ)


Preparing ONIOM calculation             ...         done
================================================================================

----- Orbital basis set information -----
Your calculation utilizes the basis: MINIX,
   a combination of small basis sets by S. Grimme (see manual for definitions).

================================================================================
                                        WARNINGS
                       Please study these warnings very carefully!
================================================================================


WARNING: Analytical Hybrid or Partial Hessian not available!
  ===> : Switching to Numerical Hessian!

WARNING: The environment variable RSH_COMMAND is not set!
  ===> : All Displacements for the Numerical Hessian or Gradient calculation
         will be started on localhost

WARNING: Geometry Optimization
  ===> : Switching off AutoStart
         For restart on a previous wavefunction, please use MOREAD

WARNING: Found frequency calculation in combination with XTB calculation
  ===> : Need to redirect dipole moment calculation to properties.out


================================================================================
                                       INPUT FILE
================================================================================
NAME = opt.inp
|  1> ! QM/XTB/MM HF-3C MINIX OPT NUMFREQ
|  2> % PAL NPROCS 32 END 
|  3> % Maxcore 3000 
|  4> % QMMM 
|  5>     QMAtoms {17267:17322} end
|  6>     QM2Atoms {469:524 1185:1198 1763:1779 14697:14721 14773:14796 15092:15102 15110:15128 15928:15966 15997:16015} end 
|  7>     ActiveAtoms {469:535 832:847 1185:1216 1231:1240 1604:1627 1749:1779 14697:14740 14773:14796 15051:15074 15082:15128 15928:15966 15997:16015 17267:17322} end 
|  8>     Charge_Medium -1
|  9>     Rigid_MM_Water true
| 10>     ORCAFFFilename "qm_complex.ORCAFF.prms" 
| 11> END
| 12> % Geom
| 13>     Recalc_Hess 100
| 14>     NResetHess 20
| 15>     NStepsInResetHess 5
| 16> END
| 17> *pdbfile -3 1 qm_complex.pdb
| 18> 
| 19>                          ****END OF INPUT****
================================================================================

------------------------------------------------------------------------------

                             **************************
                             *    3-layered ONIOM     *
                             **************************


------------------------------------------------------------------------------




Multiscale model                       ... QM1/QM2/MM
QM2 method                             ... XTB2
Coupling Scheme                        ... subtractive
Embedding Scheme                       ... electrostatic
PrintLevel                             ... 1
Method for determining QM2 charges     ... Hirshfeld
Charge of medium (QM1+QM2) system      ... -1
Charge alteration scheme               ... Charge shifting
Scaling factor for CS scheme           ... 0.06
Gradient projection scheme             ... Lever rule
Scaling factor for QM2 charges         ... 1.00
AutoFF method                          ... XTB2
Point charges in QM calc. from MM atoms... 17267
              from charge shift scheme ... 0
Point charges in QM2 calc. from MM atoms.. 17043
              from charge shift scheme ... 108
Skip double counting of LA terms       ... YES
Skip double counting of LA terms (bond)... YES
Printing trajectories, xyz and allxyz files:
        QMMMRegion                     ... YES
        activeRegion                   ... YES
        activeRegionExt                ... NO
        qmRegion                       ... YES
        qm2Region                      ... YES
Parameter files:
        ORCA Forcefield Filename       ... qm_complex.ORCAFF.prms
        QM-LA bond distances Filename  ... opt.H_DIST.prms.tmp
Forcefield type                        ... AMBER
Size of different subsystems (in atoms):
Size of QMMM System                    ... 17323
Size of MM Subsystem                   ... 17043
Size of QM1 Subsystem                  ... 56
Number of link atoms for QM1 subsystem ... 0
Size of QM1 Subsystem plus link atoms  ... 56
Size of QM2 Subsystem                  ... 224
Number of link atoms for QM2 subsystem ... 18
Size of QM1+QM2 subsystem plus LAs     ... 298
Size of region for optimizer           ... 656
        optimized atoms = activeRegion ... 433
        fixed atoms (distance cutoff)  ... 223 ( 0.0)
Composition of different systems (atoms start counting at 0):
QM1 Subsystem                          ... 17267 17268 17269 17270 17271 17272 17273 17274 17275 17276 
                                           17277 17278 17279 17280 17281 17282 17283 17284 17285 17286 
                                           17287 17288 17289 17290 17291 17292 17293 17294 17295 17296 
                                           17297 17298 17299 17300 17301 17302 17303 17304 17305 17306 
                                           17307 17308 17309 17310 17311 17312 17313 17314 17315 17316 
                                           17317 17318 17319 17320 17321 17322 
QM2 Subsystem                          ... 469 470 471 472 473 474 475 476 477 478 
                                           479 480 481 482 483 484 485 486 487 488 
                                           489 490 491 492 493 494 495 496 497 498 
                                           499 500 501 502 503 504 505 506 507 508 
                                           509 510 511 512 513 514 515 516 517 518 
                                           519 520 521 522 523 524 1185 1186 1187 1188 
                                           1189 1190 1191 1192 1193 1194 1195 1196 1197 1198 
                                           1763 1764 1765 1766 1767 1768 1769 1770 1771 1772 
                                           1773 1774 1775 1776 1777 1778 1779 14697 14698 14699 
                                           14700 14701 14702 14703 14704 14705 14706 14707 14708 14709 
                                           14710 14711 14712 14713 14714 14715 14716 14717 14718 14719 
                                           14720 14721 14773 14774 14775 14776 14777 14778 14779 14780 
                                           14781 14782 14783 14784 14785 14786 14787 14788 14789 14790 
                                           14791 14792 14793 14794 14795 14796 15092 15093 15094 15095 
                                           15096 15097 15098 15099 15100 15101 15102 15110 15111 15112 
                                           15113 15114 15115 15116 15117 15118 15119 15120 15121 15122 
                                           15123 15124 15125 15126 15127 15128 15928 15929 15930 15931 
                                           15932 15933 15934 15935 15936 15937 15938 15939 15940 15941 
                                           15942 15943 15944 15945 15946 15947 15948 15949 15950 15951 
                                           15952 15953 15954 15955 15956 15957 15958 15959 15960 15961 
                                           15962 15963 15964 15965 15966 15997 15998 15999 16000 16001 
                                           16002 16003 16004 16005 16006 16007 16008 16009 16010 16011 
                                           16012 16013 16014 16015 
Active atoms                           ... 469 470 471 472 473 474 475 476 477 478 
                                           479 480 481 482 483 484 485 486 487 488 
                                           489 490 491 492 493 494 495 496 497 498 
                                           499 500 501 502 503 504 505 506 507 508 
                                           509 510 511 512 513 514 515 516 517 518 
                                           519 520 521 522 523 524 525 526 527 528 
                                           529 530 531 532 533 534 535 832 833 834 
                                           835 836 837 838 839 840 841 842 843 844 
                                           845 846 847 1185 1186 1187 1188 1189 1190 1191 
                                           1192 1193 1194 1195 1196 1197 1198 1199 1200 1201 
                                           1202 1203 1204 1205 1206 1207 1208 1209 1210 1211 
                                           1212 1213 1214 1215 1216 1231 1232 1233 1234 1235 
                                           1236 1237 1238 1239 1240 1604 1605 1606 1607 1608 
                                           1609 1610 1611 1612 1613 1614 1615 1616 1617 1618 
                                           1619 1620 1621 1622 1623 1624 1625 1626 1627 1749 
                                           1750 1751 1752 1753 1754 1755 1756 1757 1758 1759 
                                           1760 1761 1762 1763 1764 1765 1766 1767 1768 1769 
                                           1770 1771 1772 1773 1774 1775 1776 1777 1778 1779 
                                           14697 14698 14699 14700 14701 14702 14703 14704 14705 14706 
                                           14707 14708 14709 14710 14711 14712 14713 14714 14715 14716 
                                           14717 14718 14719 14720 14721 14722 14723 14724 14725 14726 
                                           14727 14728 14729 14730 14731 14732 14733 14734 14735 14736 
                                           14737 14738 14739 14740 14773 14774 14775 14776 14777 14778 
                                           14779 14780 14781 14782 14783 14784 14785 14786 14787 14788 
                                           14789 14790 14791 14792 14793 14794 14795 14796 15051 15052 
                                           15053 15054 15055 15056 15057 15058 15059 15060 15061 15062 
                                           15063 15064 15065 15066 15067 15068 15069 15070 15071 15072 
                                           15073 15074 15082 15083 15084 15085 15086 15087 15088 15089 
                                           15090 15091 15092 15093 15094 15095 15096 15097 15098 15099 
                                           15100 15101 15102 15103 15104 15105 15106 15107 15108 15109 
                                           15110 15111 15112 15113 15114 15115 15116 15117 15118 15119 
                                           15120 15121 15122 15123 15124 15125 15126 15127 15128 15928 
                                           15929 15930 15931 15932 15933 15934 15935 15936 15937 15938 
                                           15939 15940 15941 15942 15943 15944 15945 15946 15947 15948 
                                           15949 15950 15951 15952 15953 15954 15955 15956 15957 15958 
                                           15959 15960 15961 15962 15963 15964 15965 15966 15997 15998 
                                           15999 16000 16001 16002 16003 16004 16005 16006 16007 16008 
                                           16009 16010 16011 16012 16013 16014 16015 17267 17268 17269 
                                           17270 17271 17272 17273 17274 17275 17276 17277 17278 17279 
                                           17280 17281 17282 17283 17284 17285 17286 17287 17288 17289 
                                           17290 17291 17292 17293 17294 17295 17296 17297 17298 17299 
                                           17300 17301 17302 17303 17304 17305 17306 17307 17308 17309 
                                           17310 17311 17312 17313 17314 17315 17316 17317 17318 17319 
                                           17320 17321 17322 
Fixed atoms used in optimizer          ... 461 462 463 464 465 467 468 536 537 538 
                                           540 541 546 547 548 552 565 569 583 584 
                                           822 823 830 831 848 849 850 851 870 871 
                                           883 885 898 899 1171 1172 1175 1176 1183 1184 
                                           1217 1218 1219 1220 1226 1227 1228 1229 1230 1241 
                                           1242 1243 1244 1255 1271 1272 1297 1588 1589 1591 
                                           1594 1595 1596 1599 1600 1602 1603 1628 1629 1630 
                                           1631 1638 1639 1640 1641 1676 1741 1742 1747 1748 
                                           1780 1781 1782 1783 1786 1801 1844 2543 2567 2587 
                                           2588 2590 2639 2640 10027 12170 12171 12172 12550 12551 
                                           13060 13062 13063 13064 13089 13094 13096 13099 14692 14694 
                                           14695 14696 14741 14742 14743 14744 14749 14755 14756 14757 
                                           14759 14763 14764 14766 14771 14772 14797 14798 14799 14800 
                                           14805 14806 14814 14816 14841 14847 14848 14851 14853 15031 
                                           15039 15040 15049 15050 15075 15076 15077 15078 15079 15080 
                                           15081 15129 15130 15131 15132 15137 15139 15156 15157 15160 
                                           15162 15439 15441 15451 15452 15457 15461 15476 15478 15482 
                                           15483 15527 15528 15529 15530 15531 15532 15533 15876 15877 
                                           15902 15903 15907 15909 15910 15911 15912 15913 15926 15927 
                                           15967 15968 15969 15970 15976 15978 15979 15980 15982 15984 
                                           15993 15995 15996 16016 16017 16018 16019 16026 16027 16028 
                                           16030 16031 16039 16040 16041 16187 16190 16200 16202 16204 
                                           16221 16234 16238 
Constrain bonds and angle of MM waters ... YES

                       *****************************
                       * Geometry Optimization Run *
                       *****************************

Geometry optimization settings:
Update method            Update   .... BFGS
Choice of coordinates    CoordSys .... (2022) Redundant Internals
Initial Hessian          InHess   .... Almloef's Model
Max. no of cycles        MaxIter  .... 1968

Convergence Tolerances:
Energy Change            TolE     ....  5.0000e-06 Eh
Max. Gradient            TolMAXG  ....  3.0000e-04 Eh/bohr
RMS Gradient             TolRMSG  ....  1.0000e-04 Eh/bohr
Max. Displacement        TolMAXD  ....  4.0000e-03 bohr
RMS Displacement         TolRMSD  ....  2.0000e-03 bohr
Strict Convergence                .... False

------------------------------------------------------------------------------
                        ORCA OPTIMIZATION COORDINATE SETUP
------------------------------------------------------------------------------

The optimization will be done in redundant internal coordinates (2022)
Making redundant internal coordinates   ...  (2022 redundants) done
Evaluating the initial hessian          ...  (Is done on the fly) done
Evaluating the coordinates              ...  done
Calculating the B-matrix                .... done
Calculating the G-matrix                .... done
Diagonalizing the G-matrix              .... done
Will constrain atom 0 coordinate 1 
Will constrain atom 0 coordinate 2 
Will constrain atom 0 coordinate 3 
Will constrain atom 1 coordinate 1 
Will constrain atom 1 coordinate 2 
Will constrain atom 1 coordinate 3 
Will constrain atom 2 coordinate 1 
Will constrain atom 2 coordinate 2 
Will constrain atom 2 coordinate 3 
Will constrain atom 3 coordinate 1 
Will constrain atom 3 coordinate 2 
Will constrain atom 3 coordinate 3 
Will constrain atom 4 coordinate 1 
Will constrain atom 4 coordinate 2 
Will constrain atom 4 coordinate 3 
Will constrain atom 5 coordinate 1 
Will constrain atom 5 coordinate 2 
Will constrain atom 5 coordinate 3 
Will constrain atom 6 coordinate 1 
Will constrain atom 6 coordinate 2 
Will constrain atom 6 coordinate 3 
Will constrain atom 74 coordinate 1 
Will constrain atom 74 coordinate 2 
Will constrain atom 74 coordinate 3 
Will constrain atom 75 coordinate 1 
Will constrain atom 75 coordinate 2 
Will constrain atom 75 coordinate 3 
Will constrain atom 76 coordinate 1 
Will constrain atom 76 coordinate 2 
Will constrain atom 76 coordinate 3 
Will constrain atom 77 coordinate 1 
Will constrain atom 77 coordinate 2 
Will constrain atom 77 coordinate 3 
Will constrain atom 78 coordinate 1 
Will constrain atom 78 coordinate 2 
Will constrain atom 78 coordinate 3 
Will constrain atom 79 coordinate 1 
Will constrain atom 79 coordinate 2 
Will constrain atom 79 coordinate 3 
Will constrain atom 80 coordinate 1 
Will constrain atom 80 coordinate 2 
Will constrain atom 80 coordinate 3 
Will constrain atom 81 coordinate 1 
Will constrain atom 81 coordinate 2 
Will constrain atom 81 coordinate 3 
Will constrain atom 82 coordinate 1 
Will constrain atom 82 coordinate 2 
Will constrain atom 82 coordinate 3 
Will constrain atom 83 coordinate 1 
Will constrain atom 83 coordinate 2 
Will constrain atom 83 coordinate 3 
Will constrain atom 84 coordinate 1 
Will constrain atom 84 coordinate 2 
Will constrain atom 84 coordinate 3 
Will constrain atom 85 coordinate 1 
Will constrain atom 85 coordinate 2 
Will constrain atom 85 coordinate 3 
Will constrain atom 86 coordinate 1 
Will constrain atom 86 coordinate 2 
Will constrain atom 86 coordinate 3 
Will constrain atom 87 coordinate 1 
Will constrain atom 87 coordinate 2 
Will constrain atom 87 coordinate 3 
Will constrain atom 88 coordinate 1 
Will constrain atom 88 coordinate 2 
Will constrain atom 88 coordinate 3 
Will constrain atom 89 coordinate 1 
Will constrain atom 89 coordinate 2 
Will constrain atom 89 coordinate 3 
Will constrain atom 90 coordinate 1 
Will constrain atom 90 coordinate 2 
Will constrain atom 90 coordinate 3 
Will constrain atom 107 coordinate 1 
Will constrain atom 107 coordinate 2 
Will constrain atom 107 coordinate 3 
Will constrain atom 108 coordinate 1 
Will constrain atom 108 coordinate 2 
Will constrain atom 108 coordinate 3 
Will constrain atom 109 coordinate 1 
Will constrain atom 109 coordinate 2 
Will constrain atom 109 coordinate 3 
Will constrain atom 110 coordinate 1 
Will constrain atom 110 coordinate 2 
Will constrain atom 110 coordinate 3 
Will constrain atom 111 coordinate 1 
Will constrain atom 111 coordinate 2 
Will constrain atom 111 coordinate 3 
Will constrain atom 112 coordinate 1 
Will constrain atom 112 coordinate 2 
Will constrain atom 112 coordinate 3 
Will constrain atom 113 coordinate 1 
Will constrain atom 113 coordinate 2 
Will constrain atom 113 coordinate 3 
Will constrain atom 114 coordinate 1 
Will constrain atom 114 coordinate 2 
Will constrain atom 114 coordinate 3 
Will constrain atom 115 coordinate 1 
Will constrain atom 115 coordinate 2 
Will constrain atom 115 coordinate 3 
Will constrain atom 116 coordinate 1 
Will constrain atom 116 coordinate 2 
Will constrain atom 116 coordinate 3 
Will constrain atom 117 coordinate 1 
Will constrain atom 117 coordinate 2 
Will constrain atom 117 coordinate 3 
Will constrain atom 118 coordinate 1 
Will constrain atom 118 coordinate 2 
Will constrain atom 118 coordinate 3 
Will constrain atom 119 coordinate 1 
Will constrain atom 119 coordinate 2 
Will constrain atom 119 coordinate 3 
Will constrain atom 120 coordinate 1 
Will constrain atom 120 coordinate 2 
Will constrain atom 120 coordinate 3 
Will constrain atom 121 coordinate 1 
Will constrain atom 121 coordinate 2 
Will constrain atom 121 coordinate 3 
Will constrain atom 122 coordinate 1 
Will constrain atom 122 coordinate 2 
Will constrain atom 122 coordinate 3 
Will constrain atom 155 coordinate 1 
Will constrain atom 155 coordinate 2 
Will constrain atom 155 coordinate 3 
Will constrain atom 156 coordinate 1 
Will constrain atom 156 coordinate 2 
Will constrain atom 156 coordinate 3 
Will constrain atom 157 coordinate 1 
Will constrain atom 157 coordinate 2 
Will constrain atom 157 coordinate 3 
Will constrain atom 158 coordinate 1 
Will constrain atom 158 coordinate 2 
Will constrain atom 158 coordinate 3 
Will constrain atom 159 coordinate 1 
Will constrain atom 159 coordinate 2 
Will constrain atom 159 coordinate 3 
Will constrain atom 160 coordinate 1 
Will constrain atom 160 coordinate 2 
Will constrain atom 160 coordinate 3 
Will constrain atom 161 coordinate 1 
Will constrain atom 161 coordinate 2 
Will constrain atom 161 coordinate 3 
Will constrain atom 162 coordinate 1 
Will constrain atom 162 coordinate 2 
Will constrain atom 162 coordinate 3 
Will constrain atom 163 coordinate 1 
Will constrain atom 163 coordinate 2 
Will constrain atom 163 coordinate 3 
Will constrain atom 174 coordinate 1 
Will constrain atom 174 coordinate 2 
Will constrain atom 174 coordinate 3 
Will constrain atom 175 coordinate 1 
Will constrain atom 175 coordinate 2 
Will constrain atom 175 coordinate 3 
Will constrain atom 176 coordinate 1 
Will constrain atom 176 coordinate 2 
Will constrain atom 176 coordinate 3 
Will constrain atom 177 coordinate 1 
Will constrain atom 177 coordinate 2 
Will constrain atom 177 coordinate 3 
Will constrain atom 178 coordinate 1 
Will constrain atom 178 coordinate 2 
Will constrain atom 178 coordinate 3 
Will constrain atom 179 coordinate 1 
Will constrain atom 179 coordinate 2 
Will constrain atom 179 coordinate 3 
Will constrain atom 180 coordinate 1 
Will constrain atom 180 coordinate 2 
Will constrain atom 180 coordinate 3 
Will constrain atom 181 coordinate 1 
Will constrain atom 181 coordinate 2 
Will constrain atom 181 coordinate 3 
Will constrain atom 182 coordinate 1 
Will constrain atom 182 coordinate 2 
Will constrain atom 182 coordinate 3 
Will constrain atom 183 coordinate 1 
Will constrain atom 183 coordinate 2 
Will constrain atom 183 coordinate 3 
Will constrain atom 184 coordinate 1 
Will constrain atom 184 coordinate 2 
Will constrain atom 184 coordinate 3 
Will constrain atom 185 coordinate 1 
Will constrain atom 185 coordinate 2 
Will constrain atom 185 coordinate 3 
Will constrain atom 186 coordinate 1 
Will constrain atom 186 coordinate 2 
Will constrain atom 186 coordinate 3 
Will constrain atom 187 coordinate 1 
Will constrain atom 187 coordinate 2 
Will constrain atom 187 coordinate 3 
Will constrain atom 188 coordinate 1 
Will constrain atom 188 coordinate 2 
Will constrain atom 188 coordinate 3 
Will constrain atom 189 coordinate 1 
Will constrain atom 189 coordinate 2 
Will constrain atom 189 coordinate 3 
Will constrain atom 190 coordinate 1 
Will constrain atom 190 coordinate 2 
Will constrain atom 190 coordinate 3 
Will constrain atom 191 coordinate 1 
Will constrain atom 191 coordinate 2 
Will constrain atom 191 coordinate 3 
Will constrain atom 216 coordinate 1 
Will constrain atom 216 coordinate 2 
Will constrain atom 216 coordinate 3 
Will constrain atom 217 coordinate 1 
Will constrain atom 217 coordinate 2 
Will constrain atom 217 coordinate 3 
Will constrain atom 218 coordinate 1 
Will constrain atom 218 coordinate 2 
Will constrain atom 218 coordinate 3 
Will constrain atom 219 coordinate 1 
Will constrain atom 219 coordinate 2 
Will constrain atom 219 coordinate 3 
Will constrain atom 220 coordinate 1 
Will constrain atom 220 coordinate 2 
Will constrain atom 220 coordinate 3 
Will constrain atom 221 coordinate 1 
Will constrain atom 221 coordinate 2 
Will constrain atom 221 coordinate 3 
Will constrain atom 222 coordinate 1 
Will constrain atom 222 coordinate 2 
Will constrain atom 222 coordinate 3 
Will constrain atom 223 coordinate 1 
Will constrain atom 223 coordinate 2 
Will constrain atom 223 coordinate 3 
Will constrain atom 224 coordinate 1 
Will constrain atom 224 coordinate 2 
Will constrain atom 224 coordinate 3 
Will constrain atom 225 coordinate 1 
Will constrain atom 225 coordinate 2 
Will constrain atom 225 coordinate 3 
Will constrain atom 226 coordinate 1 
Will constrain atom 226 coordinate 2 
Will constrain atom 226 coordinate 3 
Will constrain atom 227 coordinate 1 
Will constrain atom 227 coordinate 2 
Will constrain atom 227 coordinate 3 
Will constrain atom 228 coordinate 1 
Will constrain atom 228 coordinate 2 
Will constrain atom 228 coordinate 3 
Will constrain atom 260 coordinate 1 
Will constrain atom 260 coordinate 2 
Will constrain atom 260 coordinate 3 
Will constrain atom 261 coordinate 1 
Will constrain atom 261 coordinate 2 
Will constrain atom 261 coordinate 3 
Will constrain atom 262 coordinate 1 
Will constrain atom 262 coordinate 2 
Will constrain atom 262 coordinate 3 
Will constrain atom 263 coordinate 1 
Will constrain atom 263 coordinate 2 
Will constrain atom 263 coordinate 3 
Will constrain atom 264 coordinate 1 
Will constrain atom 264 coordinate 2 
Will constrain atom 264 coordinate 3 
Will constrain atom 265 coordinate 1 
Will constrain atom 265 coordinate 2 
Will constrain atom 265 coordinate 3 
Will constrain atom 266 coordinate 1 
Will constrain atom 266 coordinate 2 
Will constrain atom 266 coordinate 3 
Will constrain atom 267 coordinate 1 
Will constrain atom 267 coordinate 2 
Will constrain atom 267 coordinate 3 
Will constrain atom 268 coordinate 1 
Will constrain atom 268 coordinate 2 
Will constrain atom 268 coordinate 3 
Will constrain atom 269 coordinate 1 
Will constrain atom 269 coordinate 2 
Will constrain atom 269 coordinate 3 
Will constrain atom 270 coordinate 1 
Will constrain atom 270 coordinate 2 
Will constrain atom 270 coordinate 3 
Will constrain atom 271 coordinate 1 
Will constrain atom 271 coordinate 2 
Will constrain atom 271 coordinate 3 
Will constrain atom 272 coordinate 1 
Will constrain atom 272 coordinate 2 
Will constrain atom 272 coordinate 3 
Will constrain atom 273 coordinate 1 
Will constrain atom 273 coordinate 2 
Will constrain atom 273 coordinate 3 
Will constrain atom 274 coordinate 1 
Will constrain atom 274 coordinate 2 
Will constrain atom 274 coordinate 3 
Will constrain atom 275 coordinate 1 
Will constrain atom 275 coordinate 2 
Will constrain atom 275 coordinate 3 
Will constrain atom 276 coordinate 1 
Will constrain atom 276 coordinate 2 
Will constrain atom 276 coordinate 3 
Will constrain atom 277 coordinate 1 
Will constrain atom 277 coordinate 2 
Will constrain atom 277 coordinate 3 
Will constrain atom 278 coordinate 1 
Will constrain atom 278 coordinate 2 
Will constrain atom 278 coordinate 3 
Will constrain atom 279 coordinate 1 
Will constrain atom 279 coordinate 2 
Will constrain atom 279 coordinate 3 
Will constrain atom 280 coordinate 1 
Will constrain atom 280 coordinate 2 
Will constrain atom 280 coordinate 3 
Will constrain atom 281 coordinate 1 
Will constrain atom 281 coordinate 2 
Will constrain atom 281 coordinate 3 
Will constrain atom 282 coordinate 1 
Will constrain atom 282 coordinate 2 
Will constrain atom 282 coordinate 3 
Will constrain atom 283 coordinate 1 
Will constrain atom 283 coordinate 2 
Will constrain atom 283 coordinate 3 
Will constrain atom 284 coordinate 1 
Will constrain atom 284 coordinate 2 
Will constrain atom 284 coordinate 3 
Will constrain atom 285 coordinate 1 
Will constrain atom 285 coordinate 2 
Will constrain atom 285 coordinate 3 
Will constrain atom 286 coordinate 1 
Will constrain atom 286 coordinate 2 
Will constrain atom 286 coordinate 3 
Will constrain atom 287 coordinate 1 
Will constrain atom 287 coordinate 2 
Will constrain atom 287 coordinate 3 
Will constrain atom 288 coordinate 1 
Will constrain atom 288 coordinate 2 
Will constrain atom 288 coordinate 3 
Will constrain atom 289 coordinate 1 
Will constrain atom 289 coordinate 2 
Will constrain atom 289 coordinate 3 
Will constrain atom 290 coordinate 1 
Will constrain atom 290 coordinate 2 
Will constrain atom 290 coordinate 3 
Will constrain atom 291 coordinate 1 
Will constrain atom 291 coordinate 2 
Will constrain atom 291 coordinate 3 
Will constrain atom 336 coordinate 1 
Will constrain atom 336 coordinate 2 
Will constrain atom 336 coordinate 3 
Will constrain atom 337 coordinate 1 
Will constrain atom 337 coordinate 2 
Will constrain atom 337 coordinate 3 
Will constrain atom 338 coordinate 1 
Will constrain atom 338 coordinate 2 
Will constrain atom 338 coordinate 3 
Will constrain atom 339 coordinate 1 
Will constrain atom 339 coordinate 2 
Will constrain atom 339 coordinate 3 
Will constrain atom 340 coordinate 1 
Will constrain atom 340 coordinate 2 
Will constrain atom 340 coordinate 3 
Will constrain atom 341 coordinate 1 
Will constrain atom 341 coordinate 2 
Will constrain atom 341 coordinate 3 
Will constrain atom 342 coordinate 1 
Will constrain atom 342 coordinate 2 
Will constrain atom 342 coordinate 3 
Will constrain atom 343 coordinate 1 
Will constrain atom 343 coordinate 2 
Will constrain atom 343 coordinate 3 
Will constrain atom 344 coordinate 1 
Will constrain atom 344 coordinate 2 
Will constrain atom 344 coordinate 3 
Will constrain atom 345 coordinate 1 
Will constrain atom 345 coordinate 2 
Will constrain atom 345 coordinate 3 
Will constrain atom 346 coordinate 1 
Will constrain atom 346 coordinate 2 
Will constrain atom 346 coordinate 3 
Will constrain atom 347 coordinate 1 
Will constrain atom 347 coordinate 2 
Will constrain atom 347 coordinate 3 
Will constrain atom 348 coordinate 1 
Will constrain atom 348 coordinate 2 
Will constrain atom 348 coordinate 3 
Will constrain atom 349 coordinate 1 
Will constrain atom 349 coordinate 2 
Will constrain atom 349 coordinate 3 
Will constrain atom 374 coordinate 1 
Will constrain atom 374 coordinate 2 
Will constrain atom 374 coordinate 3 
Will constrain atom 375 coordinate 1 
Will constrain atom 375 coordinate 2 
Will constrain atom 375 coordinate 3 
Will constrain atom 376 coordinate 1 
Will constrain atom 376 coordinate 2 
Will constrain atom 376 coordinate 3 
Will constrain atom 377 coordinate 1 
Will constrain atom 377 coordinate 2 
Will constrain atom 377 coordinate 3 
Will constrain atom 378 coordinate 1 
Will constrain atom 378 coordinate 2 
Will constrain atom 378 coordinate 3 
Will constrain atom 379 coordinate 1 
Will constrain atom 379 coordinate 2 
Will constrain atom 379 coordinate 3 
Will constrain atom 380 coordinate 1 
Will constrain atom 380 coordinate 2 
Will constrain atom 380 coordinate 3 
Will constrain atom 381 coordinate 1 
Will constrain atom 381 coordinate 2 
Will constrain atom 381 coordinate 3 
Will constrain atom 382 coordinate 1 
Will constrain atom 382 coordinate 2 
Will constrain atom 382 coordinate 3 
Will constrain atom 383 coordinate 1 
Will constrain atom 383 coordinate 2 
Will constrain atom 383 coordinate 3 
Will constrain atom 384 coordinate 1 
Will constrain atom 384 coordinate 2 
Will constrain atom 384 coordinate 3 
Will constrain atom 385 coordinate 1 
Will constrain atom 385 coordinate 2 
Will constrain atom 385 coordinate 3 
Will constrain atom 386 coordinate 1 
Will constrain atom 386 coordinate 2 
Will constrain atom 386 coordinate 3 
Will constrain atom 387 coordinate 1 
Will constrain atom 387 coordinate 2 
Will constrain atom 387 coordinate 3 
Will constrain atom 388 coordinate 1 
Will constrain atom 388 coordinate 2 
Will constrain atom 388 coordinate 3 
Will constrain atom 389 coordinate 1 
Will constrain atom 389 coordinate 2 
Will constrain atom 389 coordinate 3 
Will constrain atom 390 coordinate 1 
Will constrain atom 390 coordinate 2 
Will constrain atom 390 coordinate 3 
Will constrain atom 391 coordinate 1 
Will constrain atom 391 coordinate 2 
Will constrain atom 391 coordinate 3 
Will constrain atom 416 coordinate 1 
Will constrain atom 416 coordinate 2 
Will constrain atom 416 coordinate 3 
Will constrain atom 417 coordinate 1 
Will constrain atom 417 coordinate 2 
Will constrain atom 417 coordinate 3 
Will constrain atom 418 coordinate 1 
Will constrain atom 418 coordinate 2 
Will constrain atom 418 coordinate 3 
Will constrain atom 419 coordinate 1 
Will constrain atom 419 coordinate 2 
Will constrain atom 419 coordinate 3 
Will constrain atom 420 coordinate 1 
Will constrain atom 420 coordinate 2 
Will constrain atom 420 coordinate 3 
Will constrain atom 421 coordinate 1 
Will constrain atom 421 coordinate 2 
Will constrain atom 421 coordinate 3 
Will constrain atom 422 coordinate 1 
Will constrain atom 422 coordinate 2 
Will constrain atom 422 coordinate 3 
Will constrain atom 470 coordinate 1 
Will constrain atom 470 coordinate 2 
Will constrain atom 470 coordinate 3 
Will constrain atom 471 coordinate 1 
Will constrain atom 471 coordinate 2 
Will constrain atom 471 coordinate 3 
Will constrain atom 472 coordinate 1 
Will constrain atom 472 coordinate 2 
Will constrain atom 472 coordinate 3 
Will constrain atom 473 coordinate 1 
Will constrain atom 473 coordinate 2 
Will constrain atom 473 coordinate 3 
Will constrain atom 474 coordinate 1 
Will constrain atom 474 coordinate 2 
Will constrain atom 474 coordinate 3 
Will constrain atom 475 coordinate 1 
Will constrain atom 475 coordinate 2 
Will constrain atom 475 coordinate 3 
Will constrain atom 476 coordinate 1 
Will constrain atom 476 coordinate 2 
Will constrain atom 476 coordinate 3 
Will constrain atom 477 coordinate 1 
Will constrain atom 477 coordinate 2 
Will constrain atom 477 coordinate 3 
Will constrain atom 478 coordinate 1 
Will constrain atom 478 coordinate 2 
Will constrain atom 478 coordinate 3 
Will constrain atom 479 coordinate 1 
Will constrain atom 479 coordinate 2 
Will constrain atom 479 coordinate 3 
Will constrain atom 480 coordinate 1 
Will constrain atom 480 coordinate 2 
Will constrain atom 480 coordinate 3 
Will constrain atom 481 coordinate 1 
Will constrain atom 481 coordinate 2 
Will constrain atom 481 coordinate 3 
Will constrain atom 482 coordinate 1 
Will constrain atom 482 coordinate 2 
Will constrain atom 482 coordinate 3 
Will constrain atom 483 coordinate 1 
Will constrain atom 483 coordinate 2 
Will constrain atom 483 coordinate 3 
Will constrain atom 484 coordinate 1 
Will constrain atom 484 coordinate 2 
Will constrain atom 484 coordinate 3 
Will constrain atom 485 coordinate 1 
Will constrain atom 485 coordinate 2 
Will constrain atom 485 coordinate 3 
Will constrain atom 486 coordinate 1 
Will constrain atom 486 coordinate 2 
Will constrain atom 486 coordinate 3 
Will constrain atom 487 coordinate 1 
Will constrain atom 487 coordinate 2 
Will constrain atom 487 coordinate 3 
Will constrain atom 488 coordinate 1 
Will constrain atom 488 coordinate 2 
Will constrain atom 488 coordinate 3 
Will constrain atom 489 coordinate 1 
Will constrain atom 489 coordinate 2 
Will constrain atom 489 coordinate 3 
Will constrain atom 490 coordinate 1 
Will constrain atom 490 coordinate 2 
Will constrain atom 490 coordinate 3 
Will constrain atom 491 coordinate 1 
Will constrain atom 491 coordinate 2 
Will constrain atom 491 coordinate 3 
Will constrain atom 492 coordinate 1 
Will constrain atom 492 coordinate 2 
Will constrain atom 492 coordinate 3 
Will constrain atom 493 coordinate 1 
Will constrain atom 493 coordinate 2 
Will constrain atom 493 coordinate 3 
Will constrain atom 494 coordinate 1 
Will constrain atom 494 coordinate 2 
Will constrain atom 494 coordinate 3 
Will constrain atom 495 coordinate 1 
Will constrain atom 495 coordinate 2 
Will constrain atom 495 coordinate 3 
Will constrain atom 496 coordinate 1 
Will constrain atom 496 coordinate 2 
Will constrain atom 496 coordinate 3 
Will constrain atom 497 coordinate 1 
Will constrain atom 497 coordinate 2 
Will constrain atom 497 coordinate 3 
Will constrain atom 498 coordinate 1 
Will constrain atom 498 coordinate 2 
Will constrain atom 498 coordinate 3 
Will constrain atom 499 coordinate 1 
Will constrain atom 499 coordinate 2 
Will constrain atom 499 coordinate 3 
Will constrain atom 500 coordinate 1 
Will constrain atom 500 coordinate 2 
Will constrain atom 500 coordinate 3 
Will constrain atom 501 coordinate 1 
Will constrain atom 501 coordinate 2 
Will constrain atom 501 coordinate 3 
Will constrain atom 502 coordinate 1 
Will constrain atom 502 coordinate 2 
Will constrain atom 502 coordinate 3 
Will constrain atom 503 coordinate 1 
Will constrain atom 503 coordinate 2 
Will constrain atom 503 coordinate 3 
Will constrain atom 504 coordinate 1 
Will constrain atom 504 coordinate 2 
Will constrain atom 504 coordinate 3 
Will constrain atom 505 coordinate 1 
Will constrain atom 505 coordinate 2 
Will constrain atom 505 coordinate 3 
Will constrain atom 506 coordinate 1 
Will constrain atom 506 coordinate 2 
Will constrain atom 506 coordinate 3 
Will constrain atom 507 coordinate 1 
Will constrain atom 507 coordinate 2 
Will constrain atom 507 coordinate 3 
Will constrain atom 508 coordinate 1 
Will constrain atom 508 coordinate 2 
Will constrain atom 508 coordinate 3 
Will constrain atom 548 coordinate 1 
Will constrain atom 548 coordinate 2 
Will constrain atom 548 coordinate 3 
Will constrain atom 549 coordinate 1 
Will constrain atom 549 coordinate 2 
Will constrain atom 549 coordinate 3 
Will constrain atom 550 coordinate 1 
Will constrain atom 550 coordinate 2 
Will constrain atom 550 coordinate 3 
Will constrain atom 551 coordinate 1 
Will constrain atom 551 coordinate 2 
Will constrain atom 551 coordinate 3 
Will constrain atom 552 coordinate 1 
Will constrain atom 552 coordinate 2 
Will constrain atom 552 coordinate 3 
Will constrain atom 553 coordinate 1 
Will constrain atom 553 coordinate 2 
Will constrain atom 553 coordinate 3 
Will constrain atom 554 coordinate 1 
Will constrain atom 554 coordinate 2 
Will constrain atom 554 coordinate 3 
Will constrain atom 555 coordinate 1 
Will constrain atom 555 coordinate 2 
Will constrain atom 555 coordinate 3 
Will constrain atom 556 coordinate 1 
Will constrain atom 556 coordinate 2 
Will constrain atom 556 coordinate 3 
Will constrain atom 557 coordinate 1 
Will constrain atom 557 coordinate 2 
Will constrain atom 557 coordinate 3 
Will constrain atom 558 coordinate 1 
Will constrain atom 558 coordinate 2 
Will constrain atom 558 coordinate 3 
Will constrain atom 559 coordinate 1 
Will constrain atom 559 coordinate 2 
Will constrain atom 559 coordinate 3 
Will constrain atom 560 coordinate 1 
Will constrain atom 560 coordinate 2 
Will constrain atom 560 coordinate 3 
Will constrain atom 580 coordinate 1 
Will constrain atom 580 coordinate 2 
Will constrain atom 580 coordinate 3 
Will constrain atom 581 coordinate 1 
Will constrain atom 581 coordinate 2 
Will constrain atom 581 coordinate 3 
Will constrain atom 582 coordinate 1 
Will constrain atom 582 coordinate 2 
Will constrain atom 582 coordinate 3 
Will constrain atom 583 coordinate 1 
Will constrain atom 583 coordinate 2 
Will constrain atom 583 coordinate 3 
Will constrain atom 584 coordinate 1 
Will constrain atom 584 coordinate 2 
Will constrain atom 584 coordinate 3 
Will constrain atom 585 coordinate 1 
Will constrain atom 585 coordinate 2 
Will constrain atom 585 coordinate 3 
Will constrain atom 586 coordinate 1 
Will constrain atom 586 coordinate 2 
Will constrain atom 586 coordinate 3 
Will constrain atom 587 coordinate 1 
Will constrain atom 587 coordinate 2 
Will constrain atom 587 coordinate 3 
Will constrain atom 588 coordinate 1 
Will constrain atom 588 coordinate 2 
Will constrain atom 588 coordinate 3 
Will constrain atom 589 coordinate 1 
Will constrain atom 589 coordinate 2 
Will constrain atom 589 coordinate 3 
Will constrain atom 590 coordinate 1 
Will constrain atom 590 coordinate 2 
Will constrain atom 590 coordinate 3 
Will constrain atom 591 coordinate 1 
Will constrain atom 591 coordinate 2 
Will constrain atom 591 coordinate 3 
Will constrain atom 592 coordinate 1 
Will constrain atom 592 coordinate 2 
Will constrain atom 592 coordinate 3 
Will constrain atom 593 coordinate 1 
Will constrain atom 593 coordinate 2 
Will constrain atom 593 coordinate 3 
Will constrain atom 594 coordinate 1 
Will constrain atom 594 coordinate 2 
Will constrain atom 594 coordinate 3 
Will constrain atom 595 coordinate 1 
Will constrain atom 595 coordinate 2 
Will constrain atom 595 coordinate 3 
Will constrain atom 596 coordinate 1 
Will constrain atom 596 coordinate 2 
Will constrain atom 596 coordinate 3 
Will constrain atom 597 coordinate 1 
Will constrain atom 597 coordinate 2 
Will constrain atom 597 coordinate 3 
Will constrain atom 598 coordinate 1 
Will constrain atom 598 coordinate 2 
Will constrain atom 598 coordinate 3 
Will constrain atom 599 coordinate 1 
Will constrain atom 599 coordinate 2 
Will constrain atom 599 coordinate 3 
Small eigenvalue found = 7.890e-03
Small eigenvalue found = 1.107e-02
Small eigenvalue found = 1.368e-02
Small eigenvalue found = 1.579e-02
Small eigenvalue found = 1.834e-02
Small eigenvalue found = 1.941e-02
Small eigenvalue found = 1.978e-02
Small eigenvalue found = 2.017e-02
Small eigenvalue found = 2.042e-02
Small eigenvalue found = 2.232e-02
Small eigenvalue found = 2.343e-02
Small eigenvalue found = 2.548e-02
Small eigenvalue found = 2.569e-02
Small eigenvalue found = 2.933e-02
The first mode is                       .... 3377
The number of degrees of freedom        .... 1968
Storing new coordinates                 .... done

    -----------------------------------------------------------------
                    Redundant Internal Coordinates


    -----------------------------------------------------------------
         Definition                    Initial Value    d2E/dq (diagonal element)
    -----------------------------------------------------------------
      1. B(H   1,C   0)                  1.0899         0.000000   
      2. B(C   2,C   0)                  1.4876         0.000000   
      3. B(H   3,C   2)                  1.0901         0.000000   
      4. B(H   4,C   2)                  1.0905         0.000000   
      5. B(C   5,C   0)                  1.5139         0.000000   
      6. B(O   6,C   5)                  1.2018         0.000000   
      7. B(N   7,C   5)                  1.3584         0.000000   
      8. B(C   8,N   7)                  1.4559         0.000000   
      9. B(H   9,C   8)                  1.0906         0.000000   
     10. B(H  10,C   8)                  1.0897         0.000000   
     11. B(H  10,N   7)                  2.1457         0.000000   
     12. B(C  11,C   8)                  1.5270         0.000000   
     13. B(H  12,C  11)                  1.0903         0.000000   
     14. B(H  13,C  11)                  1.0900         0.000000   
     15. B(C  14,C  11)                  1.5309         0.000000   
     16. B(H  15,C  14)                  1.0907         0.000000   
     17. B(H  16,C  14)                  1.0903         0.000000   
     18. B(C  17,N   7)                  1.4888         0.000000   
     19. B(C  17,C  14)                  1.5288         0.000000   
     20. B(H  18,C  17)                  1.0907         0.000000   
     21. B(C  19,C  17)                  1.4725         0.000000   
     22. B(O  20,C  19)                  1.2017         0.000000   
     23. B(N  21,C  19)                  1.3642         0.000000   
     24. B(H  22,N  21)                  1.0089         0.000000   
     25. B(C  23,N  21)                  1.5118         0.000000   
     26. B(H  24,C  23)                  1.0900         0.000000   
     27. B(H  25,C  23)                  1.0899         0.000000   
     28. B(C  26,C  23)                  1.4611         0.000000   
     29. B(O  27,H  22)                  2.4464         0.000000   
     30. B(O  27,C  26)                  1.2001         0.000000   
     31. B(N  28,C  26)                  1.3281         0.000000   
     32. B(H  29,N  28)                  1.0101         0.000000   
     33. B(C  30,N  28)                  1.4869         0.000000   
     34. B(H  31,C  30)                  1.0894         0.000000   
     35. B(C  32,C  30)                  1.5122         0.000000   
     36. B(H  33,C  32)                  1.0906         0.000000   
     37. B(H  34,C  32)                  1.0898         0.000000   
     38. B(O  35,C  32)                  1.4389         0.000000   
     39. B(H  36,O  35)                  0.9599         0.000000   
     40. B(C  37,C  30)                  1.5299         0.000000   
     41. B(O  38,C  37)                  1.2551         0.000000   
     42. B(N  39,C  37)                  1.3190         0.000000   
     43. B(H  40,N  39)                  1.0104         0.000000   
     44. B(C  41,N  39)                  1.4728         0.000000   
     45. B(H  42,C  41)                  1.0898         0.000000   
     46. B(C  43,C  41)                  1.5466         0.000000   
     47. B(H  44,C  43)                  1.0897         0.000000   
     48. B(H  45,C  43)                  1.0901         0.000000   
     49. B(C  46,C  43)                  1.4821         0.000000   
     50. B(H  47,C  46)                  1.0906         0.000000   
     51. B(H  48,C  46)                  1.0900         0.000000   
     52. B(C  49,C  46)                  1.5312         0.000000   
     53. B(H  50,C   0)                 14.8084         0.000000   
     54. B(H  50,C  49)                  1.0902         0.000000   
     55. B(H  51,C  49)                  1.0895         0.000000   
     56. B(N  52,C  49)                  1.4274         0.000000   
     57. B(H  53,N  52)                  1.0097         0.000000   
     58. B(H  53,H  36)                  4.9746         0.000000   
     59. B(C  54,N  52)                  1.3148         0.000000   
     60. B(N  55,C  54)                  1.2687         0.000000   
     61. B(H  56,N  55)                  1.0103         0.000000   
     62. B(H  57,N  55)                  1.0102         0.000000   
     63. B(N  58,C  54)                  1.2905         0.000000   
     64. B(H  59,N  55)                  2.4657         0.000000   
     65. B(H  59,N  58)                  1.0104         0.000000   
     66. B(H  60,N  58)                  1.0101         0.000000   
     67. B(C  61,C  41)                  1.5336         0.000000   
     68. B(O  62,C  61)                  1.2207         0.000000   
     69. B(N  63,C  61)                  1.3534         0.000000   
     70. B(H  64,N  63)                  1.0101         0.000000   
     71. B(H  64,N  39)                  2.3645         0.000000   
     72. B(C  65,N  63)                  1.4974         0.000000   
     73. B(H  66,C  65)                  1.0890         0.000000   
     74. B(C  67,C  65)                  1.4745         0.000000   
     75. B(H  68,C  67)                  1.0894         0.000000   
     76. B(H  69,C  67)                  1.0901         0.000000   
     77. B(O  70,C  67)                  1.4567         0.000000   
     78. B(O  70,H  64)                  2.4134         0.000000   
     79. B(H  71,O  70)                  0.9602         0.000000   
     80. B(H  71,O   6)                  3.4824         0.000000   
     81. B(C  72,C  65)                  1.5245         0.000000   
     82. B(O  73,C  72)                  1.2265         0.000000   
     83. B(N  74,C  72)                  1.3083         0.000000   
     84. B(H  75,N  63)                  2.4029         0.000000   
     85. B(H  75,N  74)                  1.0102         0.000000   
     86. B(H  75,O  38)                  2.0285         0.000000   
     87. B(C  76,N  74)                  1.4775         0.000000   
     88. B(C  77,C  76)                  1.5143         0.000000   
     89. B(H  78,C  77)                  1.0897         0.000000   
     90. B(O  79,C  77)                  1.4490         0.000000   
     91. B(H  80,O  79)                  0.9599         0.000000   
     92. B(H  80,O  38)                  1.9513         0.000000   
     93. B(C  81,C  76)                  1.5649         0.000000   
     94. B(H  82,N  74)                  2.8508         0.000000   
     95. B(H  82,C  81)                  2.8331         0.000000   
     96. B(H  82,C  76)                  3.1298         0.000000   
     97. B(H  82,O  62)                  2.7065         0.000000   
     98. B(H  82,O  73)                  3.3546         0.000000   
     99. B(H  82,H  78)                  3.1340         0.000000   
    100. B(H  82,C  72)                  3.0142         0.000000   
    101. B(H  82,H  75)                  3.3768         0.000000   
    102. B(H  83,C  81)                  3.1930         0.000000   
    103. B(H  83,C  72)                  3.3777         0.000000   
    104. B(H  83,H  82)                  2.9426         0.000000   
    105. B(H  83,O  73)                  2.6168         0.000000   
    106. B(H  84,H  83)                  2.6102         0.000000   
    107. B(H  84,O  73)                  2.7026         0.000000   
    108. B(N  85,H  83)                  3.3729         0.000000   
    109. B(N  85,H  84)                  2.7552         0.000000   
    110. B(H  86,N  85)                  1.0101         0.000000   
    111. B(H  86,H  84)                  2.3202         0.000000   
    112. B(H  86,H  83)                  2.7957         0.000000   
    113. B(H  86,O  73)                  1.8562         0.000000   
    114. B(H  88,C  87)                  1.0893         0.000000   
    115. B(C  89,C  87)                  1.5588         0.000000   
    116. B(O  90,C  89)                  1.2487         0.000000   
    117. B(N  91,C  89)                  1.3509         0.000000   
    118. B(H  92,N  91)                  1.0098         0.000000   
    119. B(C  93,N  91)                  1.4375         0.000000   
    120. B(H  94,C  93)                  1.0903         0.000000   
    121. B(C  95,C  93)                  1.5417         0.000000   
    122. B(H  96,C  95)                  1.0899         0.000000   
    123. B(H  97,C  95)                  1.0908         0.000000   
    124. B(C  98,C  95)                  1.5559         0.000000   
    125. B(H  99,C  98)                  1.0900         0.000000   
    126. B(H 100,H   4)                  2.1978         0.000000   
    127. B(H 100,C  98)                  1.0897         0.000000   
    128. B(C 101,C  98)                  1.5593         0.000000   
    129. B(O 102,C 101)                  1.2198         0.000000   
    130. B(O 103,C 101)                  1.3026         0.000000   
    131. B(H 104,O 103)                  0.9595         0.000000   
    132. B(H 104,H   9)                  3.4179         0.000000   
    133. B(C 105,C  93)                  1.5583         0.000000   
    134. B(O 106,C 105)                  1.1720         0.000000   
    135. B(N 107,C 105)                  1.3739         0.000000   
    136. B(H 108,N 107)                  1.0106         0.000000   
    137. B(C 109,C   0)                 10.0117         0.000000   
    138. B(C 109,N 107)                  1.4176         0.000000   
    139. B(C 109,H  50)                 20.6110         0.000000   
    140. B(H 110,C 109)                  1.0901         0.000000   
    141. B(C 111,C 109)                  1.4969         0.000000   
    142. B(O 112,C 111)                  1.2110         0.000000   
    143. B(C 113,H  94)                  2.7635         0.000000   
    144. B(H 114,C 113)                  1.0898         0.000000   
    145. B(H 114,H  94)                  2.2013         0.000000   
    146. B(H 114,O 106)                  2.5099         0.000000   
    147. B(H 116,H 114)                  2.4265         0.000000   
    148. B(H 116,N 115)                  1.0103         0.000000   
    149. B(H 116,O 106)                  1.8207         0.000000   
    150. B(H 118,C 117)                  1.0899         0.000000   
    151. B(C 119,H  99)                  2.7611         0.000000   
    152. B(C 119,C 117)                  2.5917         0.000000   
    153. B(C 119,H 118)                  2.7077         0.000000   
    154. B(H 120,H 100)                  2.9133         0.000000   
    155. B(H 120,H  97)                  2.9004         0.000000   
    156. B(H 120,C  98)                  2.9912         0.000000   
    157. B(H 120,H  99)                  2.3030         0.000000   
    158. B(H 120,C 119)                  1.0897         0.000000   
    159. B(C 121,C 117)                  1.5338         0.000000   
    160. B(O 122,C 121)                  1.2596         0.000000   
    161. B(N 123,C 121)                  1.3559         0.000000   
    162. B(H 124,N 123)                  1.0100         0.000000   
    163. B(C 125,N 123)                  1.4586         0.000000   
    164. B(H 126,C 125)                  1.0900         0.000000   
    165. B(C 127,C 125)                  1.5577         0.000000   
    166. B(H 128,H  25)                  2.2303         0.000000   
    167. B(H 128,C 127)                  1.0905         0.000000   
    168. B(C 129,C 127)                  1.5406         0.000000   
    169. B(H 130,C 129)                  1.0902         0.000000   
    170. B(H 131,C 129)                  1.0902         0.000000   
    171. B(H 132,C 129)                  1.0903         0.000000   
    172. B(O 133,C 127)                  1.3908         0.000000   
    173. B(H 134,O 133)                  0.9604         0.000000   
    174. B(H 134,H  40)                  2.8202         0.000000   
    175. B(C 135,C 125)                  1.5533         0.000000   
    176. B(O 136,C 135)                  1.2732         0.000000   
    177. B(N 137,C 135)                  1.3676         0.000000   
    178. B(H 138,N 137)                  1.0095         0.000000   
    179. B(C 139,N 137)                  1.4614         0.000000   
    180. B(H 140,C 139)                  1.0898         0.000000   
    181. B(H 140,N 137)                  2.0886         0.000000   
    182. B(C 141,C 139)                  1.5479         0.000000   
    183. B(H 142,C 141)                  1.0894         0.000000   
    184. B(H 143,C 141)                  1.0903         0.000000   
    185. B(O 144,H 142)                  2.0006         0.000000   
    186. B(O 144,C 141)                  1.3579         0.000000   
    187. B(O 144,H 143)                  2.0114         0.000000   
    188. B(H 145,O 144)                  0.9604         0.000000   
    189. B(C 146,C 139)                  1.4886         0.000000   
    190. B(O 147,C 146)                  1.2004         0.000000   
    191. B(N 148,C 146)                  1.3466         0.000000   
    192. B(H 149,N 148)                  1.0104         0.000000   
    193. B(C 150,N 148)                  1.4972         0.000000   
    194. B(H 151,C 150)                  1.0901         0.000000   
    195. B(H 152,C 150)                  1.0907         0.000000   
    196. B(C 153,C 150)                  1.5512         0.000000   
    197. B(O 154,C 153)                  1.2243         0.000000   
    198. B(N 155,C 153)                  1.3411         0.000000   
    199. B(H 156,N 155)                  1.0090         0.000000   
    200. B(C 157,N 155)                  1.4606         0.000000   
    201. B(C 157,C 109)                 10.4750         0.000000   
    202. B(C 157,C   0)                 12.1301         0.000000   
    203. B(C 157,H  50)                 13.6298         0.000000   
    204. B(H 158,C 157)                  1.0902         0.000000   
    205. B(H 159,C 157)                  2.7080         0.000000   
    206. B(H 159,N 155)                  2.8350         0.000000   
    207. B(H 159,H 158)                  2.7480         0.000000   
    208. B(H 159,H 156)                  2.6233         0.000000   
    209. B(O 160,H 159)                  2.7862         0.000000   
    210. B(O 160,C 157)                  2.4097         0.000000   
    211. B(O 160,H 156)                  2.5565         0.000000   
    212. B(H 161,O 160)                  0.9605         0.000000   
    213. B(C 162,C 157)                  1.5539         0.000000   
    214. B(O 163,C 162)                  1.2287         0.000000   
    215. B(N 164,C 162)                  1.2966         0.000000   
    216. B(H 165,N 155)                  2.4482         0.000000   
    217. B(H 165,N 164)                  1.0099         0.000000   
    218. B(C 166,N 164)                  1.4896         0.000000   
    219. B(H 167,C 166)                  1.0908         0.000000   
    220. B(C 168,C 166)                  1.5878         0.000000   
    221. B(H 169,C 168)                  1.0909         0.000000   
    222. B(H 169,H 104)                  4.0737         0.000000   
    223. B(H 170,C 168)                  1.0894         0.000000   
    224. B(H 171,O 136)                  2.2927         0.000000   
    225. B(H 171,C 168)                  1.0904         0.000000   
    226. B(C 172,C 166)                  1.5326         0.000000   
    227. B(O 173,C 172)                  1.2154         0.000000   
    228. B(N 174,C 172)                  1.3583         0.000000   
    229. B(H 175,N 174)                  1.0106         0.000000   
    230. B(H 175,O 154)                  2.2170         0.000000   
    231. B(C 176,N 174)                  1.4935         0.000000   
    232. B(H 177,C 176)                  1.0900         0.000000   
    233. B(C 178,C 176)                  1.5660         0.000000   
    234. B(C 179,H  96)                  2.7286         0.000000   
    235. B(H 180,H  96)                  2.1824         0.000000   
    236. B(H 180,O 173)                  2.6797         0.000000   
    237. B(H 180,C 179)                  1.0907         0.000000   
    238. B(H 181,C 105)                  3.1355         0.000000   
    239. B(H 181,H  97)                  2.6141         0.000000   
    240. B(H 181,H 116)                  2.8231         0.000000   
    241. B(H 181,O 106)                  2.4232         0.000000   
    242. B(H 183,H  66)                  2.6105         0.000000   
    243. B(H 183,H 182)                  1.7244         0.000000   
    244. B(H 183,H 126)                  2.3180         0.000000   
    245. B(O 184,C 139)                  3.2740         0.000000   
    246. B(O 184,H 140)                  2.6047         0.000000   
    247. B(O 184,H 143)                  2.5939         0.000000   
    248. B(O 184,N 137)                  3.3300         0.000000   
    249. B(O 184,C 141)                  3.3110         0.000000   
    250. B(C 185,O 184)                  2.8180         0.000000   
    251. B(H 186,H 143)                  2.0710         0.000000   
    252. B(H 186,H 142)                  2.5325         0.000000   
    253. B(H 186,O 184)                  2.5771         0.000000   
    254. B(H 186,C 185)                  1.0900         0.000000   
    255. B(C 187,C 185)                  1.4870         0.000000   
    256. B(C 188,C 187)                  1.5177         0.000000   
    257. B(O 189,C 188)                  1.2338         0.000000   
    258. B(C 190,C 185)                  1.5809         0.000000   
    259. B(O 191,C 190)                  1.2611         0.000000   
    260. B(N 192,C 190)                  1.3306         0.000000   
    261. B(H 193,N 192)                  1.0095         0.000000   
    262. B(H 193,O 189)                  2.0255         0.000000   
    263. B(C 194,N 192)                  1.4617         0.000000   
    264. B(H 195,C 194)                  1.0903         0.000000   
    265. B(C 196,C 194)                  1.5178         0.000000   
    266. B(H 197,C 196)                  1.0900         0.000000   
    267. B(H 198,C 196)                  1.0902         0.000000   
    268. B(C 199,C 196)                  1.5398         0.000000   
    269. B(H 200,C 199)                  1.0902         0.000000   
    270. B(H 201,C 199)                  1.0904         0.000000   
    271. B(C 202,C 199)                  1.5246         0.000000   
    272. B(H 203,C 202)                  1.0906         0.000000   
    273. B(H 203,H  47)                  2.4973         0.000000   
    274. B(H 204,C 202)                  1.0900         0.000000   
    275. B(N 205,H 204)                  2.1181         0.000000   
    276. B(N 205,C 202)                  1.4788         0.000000   
    277. B(H 206,N 205)                  1.0101         0.000000   
    278. B(C 207,N 205)                  1.3232         0.000000   
    279. B(N 208,C 207)                  1.3392         0.000000   
    280. B(H 209,O 144)                  2.0245         0.000000   
    281. B(H 209,H 145)                  2.4304         0.000000   
    282. B(H 209,H  47)                  2.3982         0.000000   
    283. B(H 209,N 208)                  1.0098         0.000000   
    284. B(H 210,H  44)                  2.5739         0.000000   
    285. B(H 210,N 208)                  1.0106         0.000000   
    286. B(N 211,C 207)                  1.3362         0.000000   
    287. B(H 212,N 211)                  1.0099         0.000000   
    288. B(H 213,N 211)                  1.0111         0.000000   
    289. B(H 213,H  60)                  3.2696         0.000000   
    290. B(C 214,C 194)                  1.5162         0.000000   
    291. B(O 215,C 214)                  1.2181         0.000000   
    292. B(N 216,C 214)                  1.3600         0.000000   
    293. B(C 217,N 216)                  1.4120         0.000000   
    294. B(H 218,C 217)                  1.0903         0.000000   
    295. B(H 219,H  56)                  2.3492         0.000000   
    296. B(H 219,C 217)                  1.0900         0.000000   
    297. B(C 220,N 216)                  1.4525         0.000000   
    298. B(H 221,C 220)                  1.0897         0.000000   
    299. B(C 222,C 220)                  1.5377         0.000000   
    300. B(O 223,C 222)                  1.2350         0.000000   
    301. B(H 224,H 198)                  2.2463         0.000000   
    302. B(H 224,H 218)                  2.1208         0.000000   
    303. B(C 225,C 109)                 23.8927         0.000000   
    304. B(C 225,C 157)                 13.7420         0.000000   
    305. B(C 225,C   0)                 21.1170         0.000000   
    306. B(C 225,H  50)                 10.5745         0.000000   
    307. B(H 226,C 225)                  1.0904         0.000000   
    308. B(C 227,C 225)                  1.5541         0.000000   
    309. B(O 228,C 227)                  1.2228         0.000000   
    310. B(N 229,C 227)                  1.3275         0.000000   
    311. B(H 230,N 229)                  1.0093         0.000000   
    312. B(C 231,N 229)                  1.4603         0.000000   
    313. B(H 232,C 231)                  1.0901         0.000000   
    314. B(C 233,C 231)                  1.4999         0.000000   
    315. B(H 234,C 233)                  1.0894         0.000000   
    316. B(H 235,H 213)                  4.5657         0.000000   
    317. B(H 235,C 233)                  1.0904         0.000000   
    318. B(C 236,C 233)                  1.5051         0.000000   
    319. B(O 237,C 236)                  1.2081         0.000000   
    320. B(N 238,C 236)                  1.3037         0.000000   
    321. B(H 239,N 238)                  1.0095         0.000000   
    322. B(H 240,N 238)                  1.0098         0.000000   
    323. B(C 241,C 231)                  1.5129         0.000000   
    324. B(O 242,C 241)                  1.2327         0.000000   
    325. B(N 243,C 241)                  1.3249         0.000000   
    326. B(H 244,N 243)                  1.0091         0.000000   
    327. B(C 245,N 243)                  1.4730         0.000000   
    328. B(H 246,C 245)                  1.0899         0.000000   
    329. B(C 247,C 245)                  1.4880         0.000000   
    330. B(H 248,C 247)                  1.0905         0.000000   
    331. B(H 249,C 247)                  1.0906         0.000000   
    332. B(C 250,C 247)                  1.4998         0.000000   
    333. B(H 251,H 145)                  1.8956         0.000000   
    334. B(H 251,C 250)                  1.0903         0.000000   
    335. B(H 252,C 250)                  1.0897         0.000000   
    336. B(C 253,H 210)                  2.5961         0.000000   
    337. B(C 253,C 250)                  1.5069         0.000000   
    338. B(O 254,C 253)                  1.2356         0.000000   
    339. B(O 254,H 210)                  2.0982         0.000000   
    340. B(N 255,C 253)                  1.3069         0.000000   
    341. B(H 256,O 147)                  2.1609         0.000000   
    342. B(H 256,N 255)                  1.0101         0.000000   
    343. B(H 256,H 132)                  2.3208         0.000000   
    344. B(H 257,N 255)                  1.0098         0.000000   
    345. B(H 257,O 254)                  2.4145         0.000000   
    346. B(C 258,C 245)                  1.5830         0.000000   
    347. B(O 259,H 204)                  2.6067         0.000000   
    348. B(O 259,H 145)                  1.9461         0.000000   
    349. B(O 259,C 258)                  1.2510         0.000000   
    350. B(N 260,C 258)                  1.3491         0.000000   
    351. B(H 261,N 260)                  1.0097         0.000000   
    352. B(H 261,O 228)                  2.1637         0.000000   
    353. B(H 261,N 243)                  2.4606         0.000000   
    354. B(C 262,N 260)                  1.4651         0.000000   
    355. B(H 263,C 262)                  1.0892         0.000000   
    356. B(H 263,H 204)                  2.5600         0.000000   
    357. B(H 264,H 200)                  2.1288         0.000000   
    358. B(H 264,N 260)                  2.4835         0.000000   
    359. B(H 264,H 261)                  2.6227         0.000000   
    360. B(H 264,C 262)                  2.2141         0.000000   
    361. B(H 264,H 263)                  2.5389         0.000000   
    362. B(H 265,N 148)                  2.8413         0.000000   
    363. B(H 265,H 151)                  2.2541         0.000000   
    364. B(H 265,H 149)                  2.1920         0.000000   
    365. B(O 266,H 149)                  2.0324         0.000000   
    366. B(O 266,H 140)                  2.4228         0.000000   
    367. B(O 266,H 142)                  2.4543         0.000000   
    368. B(H 267,H 221)                  2.1149         0.000000   
    369. B(H 267,O 215)                  2.6650         0.000000   
    370. B(O 268,H  56)                  1.7986         0.000000   
    371. B(H 269,N  58)                  2.7079         0.000000   
    372. B(H 269,H  59)                  2.4676         0.000000   
    373. B(C 270,H 269)                  2.1446         0.000000   
    374. B(O 271,H  59)                  1.8147         0.000000   
    375. B(O 271,C 270)                  1.2755         0.000000   
    376. B(O 271,H 269)                  2.5724         0.000000   
    377. B(H 273,O  35)                  1.7254         0.000000   
    378. B(H 273,H  31)                  2.2129         0.000000   
    379. B(H 273,O 272)                  0.9602         0.000000   
    380. B(H 276,C 109)                 22.0803         0.000000   
    381. B(H 276,N 275)                  1.0102         0.000000   
    382. B(H 276,C 157)                 12.8065         0.000000   
    383. B(H 276,C   0)                 22.0911         0.000000   
    384. B(H 276,C 225)                 10.4143         0.000000   
    385. B(H 276,H  50)                 18.3529         0.000000   
    386. B(H 277,N 275)                  1.0093         0.000000   
[...]
	<< Calculating gradient on displaced geometry 377 (of 670) >>
	<< Calculating gradient on displaced geometry 376 (of 670) >>
	<< Calculating gradient on displaced geometry 378 (of 670) >>
	<< Calculating gradient on displaced geometry 379 (of 670) >>
	<< Calculating gradient on displaced geometry 380 (of 670) >>
	<< Calculating gradient on displaced geometry 381 (of 670) >>
	<< Calculating gradient on displaced geometry 382 (of 670) >>
	<< Calculating gradient on displaced geometry 383 (of 670) >>
	<< Calculating gradient on displaced geometry 384 (of 670) >>
	<< Calculating gradient on displaced geometry 385 (of 670) >>
	<< Calculating gradient on displaced geometry 386 (of 670) >>
	<< Calculating gradient on displaced geometry 387 (of 670) >>
	<< Calculating gradient on displaced geometry 388 (of 670) >>
	<< Calculating gradient on displaced geometry 389 (of 670) >>
	<< Calculating gradient on displaced geometry 390 (of 670) >>
	<< Calculating gradient on displaced geometry 391 (of 670) >>
	<< Calculating gradient on displaced geometry 392 (of 670) >>
	<< Calculating gradient on displaced geometry 394 (of 670) >>
	<< Calculating gradient on displaced geometry 393 (of 670) >>
	<< Calculating gradient on displaced geometry 395 (of 670) >>
	<< Calculating gradient on displaced geometry 396 (of 670) >>
	<< Calculating gradient on displaced geometry 397 (of 670) >>
	<< Calculating gradient on displaced geometry 398 (of 670) >>
	<< Calculating gradient on displaced geometry 399 (of 670) >>
	<< Calculating gradient on displaced geometry 400 (of 670) >>
	<< Calculating gradient on displaced geometry 401 (of 670) >>
	<< Calculating gradient on displaced geometry 402 (of 670) >>
	<< Calculating gradient on displaced geometry 403 (of 670) >>
	<< Calculating gradient on displaced geometry 404 (of 670) >>
	<< Calculating gradient on displaced geometry 405 (of 670) >>
	<< Calculating gradient on displaced geometry 406 (of 670) >>
	<< Calculating gradient on displaced geometry 407 (of 670) >>
	<< Calculating gradient on displaced geometry 408 (of 670) >>
	<< Calculating gradient on displaced geometry 409 (of 670) >>
	<< Calculating gradient on displaced geometry 410 (of 670) >>
	<< Calculating gradient on displaced geometry 411 (of 670) >>
	<< Calculating gradient on displaced geometry 412 (of 670) >>
	<< Calculating gradient on displaced geometry 413 (of 670) >>
	<< Calculating gradient on displaced geometry 414 (of 670) >>
	<< Calculating gradient on displaced geometry 415 (of 670) >>
	<< Calculating gradient on displaced geometry 416 (of 670) >>
	<< Calculating gradient on displaced geometry 417 (of 670) >>
	<< Calculating gradient on displaced geometry 418 (of 670) >>
	<< Calculating gradient on displaced geometry 419 (of 670) >>
	<< Calculating gradient on displaced geometry 420 (of 670) >>
	<< Calculating gradient on displaced geometry 421 (of 670) >>
	<< Calculating gradient on displaced geometry 422 (of 670) >>
	<< Calculating gradient on displaced geometry 423 (of 670) >>
	<< Calculating gradient on displaced geometry 424 (of 670) >>
	<< Calculating gradient on displaced geometry 425 (of 670) >>
	<< Calculating gradient on displaced geometry 426 (of 670) >>
	<< Calculating gradient on displaced geometry 427 (of 670) >>
	<< Calculating gradient on displaced geometry 428 (of 670) >>
	<< Calculating gradient on displaced geometry 430 (of 670) >>
	<< Calculating gradient on displaced geometry 429 (of 670) >>
	<< Calculating gradient on displaced geometry 431 (of 670) >>
	<< Calculating gradient on displaced geometry 432 (of 670) >>
	<< Calculating gradient on displaced geometry 433 (of 670) >>
	<< Calculating gradient on displaced geometry 434 (of 670) >>
	<< Calculating gradient on displaced geometry 435 (of 670) >>
	<< Calculating gradient on displaced geometry 436 (of 670) >>
	<< Calculating gradient on displaced geometry 437 (of 670) >>
	<< Calculating gradient on displaced geometry 438 (of 670) >>
	<< Calculating gradient on displaced geometry 439 (of 670) >>
	<< Calculating gradient on displaced geometry 440 (of 670) >>
	<< Calculating gradient on displaced geometry 441 (of 670) >>
	<< Calculating gradient on displaced geometry 442 (of 670) >>
	<< Calculating gradient on displaced geometry 443 (of 670) >>
	<< Calculating gradient on displaced geometry 444 (of 670) >>
	<< Calculating gradient on displaced geometry 445 (of 670) >>
	<< Calculating gradient on displaced geometry 446 (of 670) >>
	<< Calculating gradient on displaced geometry 447 (of 670) >>
	<< Calculating gradient on displaced geometry 448 (of 670) >>
	<< Calculating gradient on displaced geometry 449 (of 670) >>
	<< Calculating gradient on displaced geometry 450 (of 670) >>
	<< Calculating gradient on displaced geometry 451 (of 670) >>
	<< Calculating gradient on displaced geometry 452 (of 670) >>
	<< Calculating gradient on displaced geometry 453 (of 670) >>
	<< Calculating gradient on displaced geometry 454 (of 670) >>
	<< Calculating gradient on displaced geometry 455 (of 670) >>
	<< Calculating gradient on displaced geometry 456 (of 670) >>
	<< Calculating gradient on displaced geometry 457 (of 670) >>
	<< Calculating gradient on displaced geometry 458 (of 670) >>
	<< Calculating gradient on displaced geometry 459 (of 670) >>
	<< Calculating gradient on displaced geometry 460 (of 670) >>
	<< Calculating gradient on displaced geometry 461 (of 670) >>
	<< Calculating gradient on displaced geometry 462 (of 670) >>
	<< Calculating gradient on displaced geometry 463 (of 670) >>
	<< Calculating gradient on displaced geometry 464 (of 670) >>
	<< Calculating gradient on displaced geometry 465 (of 670) >>
	<< Calculating gradient on displaced geometry 466 (of 670) >>
	<< Calculating gradient on displaced geometry 467 (of 670) >>
	<< Calculating gradient on displaced geometry 468 (of 670) >>
	<< Calculating gradient on displaced geometry 469 (of 670) >>
	<< Calculating gradient on displaced geometry 470 (of 670) >>
	<< Calculating gradient on displaced geometry 471 (of 670) >>
	<< Calculating gradient on displaced geometry 472 (of 670) >>
	<< Calculating gradient on displaced geometry 473 (of 670) >>
	<< Calculating gradient on displaced geometry 474 (of 670) >>
	<< Calculating gradient on displaced geometry 475 (of 670) >>
	<< Calculating gradient on displaced geometry 476 (of 670) >>
	<< Calculating gradient on displaced geometry 477 (of 670) >>
	<< Calculating gradient on displaced geometry 478 (of 670) >>
	<< Calculating gradient on displaced geometry 479 (of 670) >>
	<< Calculating gradient on displaced geometry 480 (of 670) >>
	<< Calculating gradient on displaced geometry 481 (of 670) >>
	<< Calculating gradient on displaced geometry 482 (of 670) >>
	<< Calculating gradient on displaced geometry 483 (of 670) >>
	<< Calculating gradient on displaced geometry 484 (of 670) >>
	<< Calculating gradient on displaced geometry 485 (of 670) >>
	<< Calculating gradient on displaced geometry 486 (of 670) >>
	<< Calculating gradient on displaced geometry 487 (of 670) >>
	<< Calculating gradient on displaced geometry 488 (of 670) >>
	<< Calculating gradient on displaced geometry 489 (of 670) >>
	<< Calculating gradient on displaced geometry 490 (of 670) >>
	<< Calculating gradient on displaced geometry 491 (of 670) >>
	<< Calculating gradient on displaced geometry 492 (of 670) >>
	<< Calculating gradient on displaced geometry 493 (of 670) >>
	<< Calculating gradient on displaced geometry 494 (of 670) >>
	<< Calculating gradient on displaced geometry 495 (of 670) >>
[file orca_main/main_util_tools.cpp, line 549]: Cannot open gbw file

	<< Calculating gradient on displaced geometry 496 (of 670) >>
	<< Calculating gradient on displaced geometry 497 (of 670) >>
	<< Calculating gradient on displaced geometry 498 (of 670) >>
	<< Calculating gradient on displaced geometry 499 (of 670) >>
	<< Calculating gradient on displaced geometry 500 (of 670) >>
	<< Calculating gradient on displaced geometry 501 (of 670) >>
	<< Calculating gradient on displaced geometry 502 (of 670) >>
	<< Calculating gradient on displaced geometry 503 (of 670) >>
	<< Calculating gradient on displaced geometry 504 (of 670) >>
	<< Calculating gradient on displaced geometry 505 (of 670) >>
	<< Calculating gradient on displaced geometry 506 (of 670) >>
	<< Calculating gradient on displaced geometry 507 (of 670) >>
	<< Calculating gradient on displaced geometry 508 (of 670) >>
	<< Calculating gradient on displaced geometry 509 (of 670) >>
	<< Calculating gradient on displaced geometry 510 (of 670) >>
	<< Calculating gradient on displaced geometry 511 (of 670) >>
	<< Calculating gradient on displaced geometry 512 (of 670) >>
	<< Calculating gradient on displaced geometry 513 (of 670) >>
	<< Calculating gradient on displaced geometry 514 (of 670) >>
	<< Calculating gradient on displaced geometry 515 (of 670) >>
	<< Calculating gradient on displaced geometry 516 (of 670) >>
	<< Calculating gradient on displaced geometry 517 (of 670) >>
	<< Calculating gradient on displaced geometry 518 (of 670) >>
	<< Calculating gradient on displaced geometry 519 (of 670) >>
	<< Calculating gradient on displaced geometry 520 (of 670) >>
	<< Calculating gradient on displaced geometry 521 (of 670) >>
	<< Calculating gradient on displaced geometry 522 (of 670) >>
	<< Calculating gradient on displaced geometry 523 (of 670) >>
	<< Calculating gradient on displaced geometry 524 (of 670) >>
	<< Calculating gradient on displaced geometry 525 (of 670) >>
	<< Calculating gradient on displaced geometry 526 (of 670) >>
	<< Calculating gradient on displaced geometry 527 (of 670) >>
	<< Calculating gradient on displaced geometry 528 (of 670) >>
	<< Calculating gradient on displaced geometry 529 (of 670) >>
	<< Calculating gradient on displaced geometry 530 (of 670) >>
	<< Calculating gradient on displaced geometry 531 (of 670) >>
	<< Calculating gradient on displaced geometry 532 (of 670) >>
	<< Calculating gradient on displaced geometry 533 (of 670) >>
	<< Calculating gradient on displaced geometry 535 (of 670) >>
	<< Calculating gradient on displaced geometry 534 (of 670) >>
	<< Calculating gradient on displaced geometry 536 (of 670) >>
	<< Calculating gradient on displaced geometry 537 (of 670) >>
	<< Calculating gradient on displaced geometry 538 (of 670) >>
	<< Calculating gradient on displaced geometry 539 (of 670) >>
	<< Calculating gradient on displaced geometry 540 (of 670) >>
	<< Calculating gradient on displaced geometry 541 (of 670) >>
	<< Calculating gradient on displaced geometry 542 (of 670) >>
	<< Calculating gradient on displaced geometry 543 (of 670) >>
	<< Calculating gradient on displaced geometry 544 (of 670) >>
	<< Calculating gradient on displaced geometry 545 (of 670) >>
	<< Calculating gradient on displaced geometry 546 (of 670) >>
	<< Calculating gradient on displaced geometry 547 (of 670) >>
	<< Calculating gradient on displaced geometry 548 (of 670) >>
	<< Calculating gradient on displaced geometry 549 (of 670) >>
	<< Calculating gradient on displaced geometry 550 (of 670) >>
	<< Calculating gradient on displaced geometry 551 (of 670) >>
	<< Calculating gradient on displaced geometry 552 (of 670) >>
	<< Calculating gradient on displaced geometry 553 (of 670) >>
	<< Calculating gradient on displaced geometry 554 (of 670) >>
	<< Calculating gradient on displaced geometry 555 (of 670) >>
	<< Calculating gradient on displaced geometry 556 (of 670) >>
	<< Calculating gradient on displaced geometry 557 (of 670) >>
	<< Calculating gradient on displaced geometry 558 (of 670) >>
	<< Calculating gradient on displaced geometry 559 (of 670) >>
	<< Calculating gradient on displaced geometry 560 (of 670) >>
	<< Calculating gradient on displaced geometry 561 (of 670) >>
	<< Calculating gradient on displaced geometry 562 (of 670) >>
	<< Calculating gradient on displaced geometry 563 (of 670) >>
	<< Calculating gradient on displaced geometry 564 (of 670) >>
	<< Calculating gradient on displaced geometry 565 (of 670) >>
	<< Calculating gradient on displaced geometry 566 (of 670) >>
	<< Calculating gradient on displaced geometry 567 (of 670) >>
	<< Calculating gradient on displaced geometry 568 (of 670) >>
	<< Calculating gradient on displaced geometry 569 (of 670) >>
	<< Calculating gradient on displaced geometry 570 (of 670) >>
	<< Calculating gradient on displaced geometry 571 (of 670) >>
	<< Calculating gradient on displaced geometry 572 (of 670) >>
	<< Calculating gradient on displaced geometry 573 (of 670) >>
	<< Calculating gradient on displaced geometry 574 (of 670) >>
	<< Calculating gradient on displaced geometry 575 (of 670) >>
	<< Calculating gradient on displaced geometry 576 (of 670) >>
	<< Calculating gradient on displaced geometry 577 (of 670) >>
	<< Calculating gradient on displaced geometry 578 (of 670) >>
	<< Calculating gradient on displaced geometry 579 (of 670) >>
	<< Calculating gradient on displaced geometry 580 (of 670) >>
	<< Calculating gradient on displaced geometry 581 (of 670) >>
	<< Calculating gradient on displaced geometry 582 (of 670) >>
	<< Calculating gradient on displaced geometry 583 (of 670) >>
[file orca_main/main_util_tools.cpp, line 549]: Cannot open gbw file

	<< Calculating gradient on displaced geometry 584 (of 670) >>
	<< Calculating gradient on displaced geometry 585 (of 670) >>
	<< Calculating gradient on displaced geometry 586 (of 670) >>
	<< Calculating gradient on displaced geometry 587 (of 670) >>
	<< Calculating gradient on displaced geometry 588 (of 670) >>
	<< Calculating gradient on displaced geometry 589 (of 670) >>
	<< Calculating gradient on displaced geometry 590 (of 670) >>
	<< Calculating gradient on displaced geometry 591 (of 670) >>
	<< Calculating gradient on displaced geometry 592 (of 670) >>
	<< Calculating gradient on displaced geometry 593 (of 670) >>
	<< Calculating gradient on displaced geometry 594 (of 670) >>
	<< Calculating gradient on displaced geometry 595 (of 670) >>
	<< Calculating gradient on displaced geometry 596 (of 670) >>
	<< Calculating gradient on displaced geometry 597 (of 670) >>
	<< Calculating gradient on displaced geometry 598 (of 670) >>
	<< Calculating gradient on displaced geometry 599 (of 670) >>
	<< Calculating gradient on displaced geometry 600 (of 670) >>
	<< Calculating gradient on displaced geometry 601 (of 670) >>
	<< Calculating gradient on displaced geometry 602 (of 670) >>
	<< Calculating gradient on displaced geometry 604 (of 670) >>
	<< Calculating gradient on displaced geometry 603 (of 670) >>
	<< Calculating gradient on displaced geometry 605 (of 670) >>
	<< Calculating gradient on displaced geometry 606 (of 670) >>
	<< Calculating gradient on displaced geometry 607 (of 670) >>
	<< Calculating gradient on displaced geometry 608 (of 670) >>
	<< Calculating gradient on displaced geometry 609 (of 670) >>
	<< Calculating gradient on displaced geometry 610 (of 670) >>
	<< Calculating gradient on displaced geometry 611 (of 670) >>
	<< Calculating gradient on displaced geometry 612 (of 670) >>
	<< Calculating gradient on displaced geometry 613 (of 670) >>
	<< Calculating gradient on displaced geometry 614 (of 670) >>
	<< Calculating gradient on displaced geometry 615 (of 670) >>
	<< Calculating gradient on displaced geometry 616 (of 670) >>
	<< Calculating gradient on displaced geometry 617 (of 670) >>
	<< Calculating gradient on displaced geometry 618 (of 670) >>
	<< Calculating gradient on displaced geometry 619 (of 670) >>
	<< Calculating gradient on displaced geometry 620 (of 670) >>
	<< Calculating gradient on displaced geometry 621 (of 670) >>
	<< Calculating gradient on displaced geometry 622 (of 670) >>
	<< Calculating gradient on displaced geometry 623 (of 670) >>
	<< Calculating gradient on displaced geometry 624 (of 670) >>
	<< Calculating gradient on displaced geometry 625 (of 670) >>
	<< Calculating gradient on displaced geometry 626 (of 670) >>
	<< Calculating gradient on displaced geometry 627 (of 670) >>
	<< Calculating gradient on displaced geometry 628 (of 670) >>
	<< Calculating gradient on displaced geometry 629 (of 670) >>
	<< Calculating gradient on displaced geometry 630 (of 670) >>
	<< Calculating gradient on displaced geometry 631 (of 670) >>
	<< Calculating gradient on displaced geometry 632 (of 670) >>
	<< Calculating gradient on displaced geometry 633 (of 670) >>
	<< Calculating gradient on displaced geometry 634 (of 670) >>
	<< Calculating gradient on displaced geometry 635 (of 670) >>
	<< Calculating gradient on displaced geometry 636 (of 670) >>
	<< Calculating gradient on displaced geometry 637 (of 670) >>
	<< Calculating gradient on displaced geometry 638 (of 670) >>
	<< Calculating gradient on displaced geometry 639 (of 670) >>
	<< Calculating gradient on displaced geometry 640 (of 670) >>
	<< Calculating gradient on displaced geometry 641 (of 670) >>
	<< Calculating gradient on displaced geometry 642 (of 670) >>
	<< Calculating gradient on displaced geometry 643 (of 670) >>
	<< Calculating gradient on displaced geometry 644 (of 670) >>
	<< Calculating gradient on displaced geometry 645 (of 670) >>
	<< Calculating gradient on displaced geometry 646 (of 670) >>
	<< Calculating gradient on displaced geometry 647 (of 670) >>
	<< Calculating gradient on displaced geometry 648 (of 670) >>
	<< Calculating gradient on displaced geometry 649 (of 670) >>
	<< Calculating gradient on displaced geometry 650 (of 670) >>
	<< Calculating gradient on displaced geometry 651 (of 670) >>
	<< Calculating gradient on displaced geometry 652 (of 670) >>
	<< Calculating gradient on displaced geometry 653 (of 670) >>
	<< Calculating gradient on displaced geometry 654 (of 670) >>
	<< Calculating gradient on displaced geometry 655 (of 670) >>
	<< Calculating gradient on displaced geometry 656 (of 670) >>
	<< Calculating gradient on displaced geometry 657 (of 670) >>
	<< Calculating gradient on displaced geometry 658 (of 670) >>
	<< Calculating gradient on displaced geometry 659 (of 670) >>
	<< Calculating gradient on displaced geometry 660 (of 670) >>
	<< Calculating gradient on displaced geometry 661 (of 670) >>
	<< Calculating gradient on displaced geometry 662 (of 670) >>
	<< Calculating gradient on displaced geometry 663 (of 670) >>
	<< Calculating gradient on displaced geometry 664 (of 670) >>
	<< Calculating gradient on displaced geometry 665 (of 670) >>
	<< Calculating gradient on displaced geometry 666 (of 670) >>
	<< Calculating gradient on displaced geometry 667 (of 670) >>
	<< Calculating gradient on displaced geometry 668 (of 670) >>
	<< Calculating gradient on displaced geometry 669 (of 670) >>
	<< Calculating gradient on displaced geometry 670 (of 670) >>

Calculation 194 of 670 is missing. ! - Please check !

Calculation 290 of 670 is missing. ! - Please check !

Calculation 467 of 670 is missing. ! - Please check !

Calculation 559 of 670 is missing. ! - Please check !


############################################################################

WARNING: It seems that the Numerical calculation ISN'T COMPLETE!
         Please check your results VERY carefully!
         For possible error information check files opt.last*.dpl*

############################################################################



Calculation 194 of 670 is missing. ! - Please check !

Calculation 290 of 670 is missing. ! - Please check !

Calculation 467 of 670 is missing. ! - Please check !

Calculation 559 of 670 is missing. ! - Please check !


############################################################################

WARNING: It seems that the Numerical calculation ISN'T COMPLETE!
         Please check your results VERY carefully!
         For possible error information check files opt.last*.dpl*

############################################################################



Warning: failed to read Hessian file!
[file orca_main/main_driver_hessian_numeric.cpp, line 1346]: Cannot open: opt.hess

